<VTKFile type="PolyData" version="1.0" byte_order="LittleEndian" header_type="UInt64">
  <PolyData>
    <Piece NumberOfPoints="26820" NumberOfVerts="0" NumberOfLines="0" NumberOfStrips="0" NumberOfPolys="53636">
      <PointData Normals="Normals">
        <DataArray type="Float32" Name="Normals" NumberOfComponents="3" format="ascii" RangeMin="0.99999922079" RangeMax="1.0000007925">
          -0.087367996573 -0.22727699578 -0.96990299225 -0.089787997305 -0.19541400671 -0.97660201788
          -0.064989000559 -0.1976249963 -0.97812098265 -0.064612001181 -0.22810299695 -0.97149097919
          0.21154600382 -0.28575998545 0.93466001749 0.21590900421 0.41357600689 0.88449901342
          0.22504399717 0.36826300621 0.90207397938 0.92550098896 0.28076899052 -0.25419899821
          0.93003302813 0.26684901118 -0.25264599919 0.93109101057 0.27380099893 -0.24104599655
          -0.1449739933 -0.79851299524 -0.58425998688 -0.13146699965 -0.88535100222 -0.44594800472
          -0.11143100262 -0.8588449955 -0.49996900558 -0.17318999767 -0.7293959856 -0.66180598736
          -0.17232400179 -0.82072001696 -0.54472202063 -0.19165199995 -0.63825702667 -0.74558502436
          -0.1994780004 -0.72764098644 -0.65631401539 -0.21322000027 -0.62245798111 -0.75305002928
          -0.21111699939 -0.50360798836 -0.83774000406 -0.19607299566 -0.53793597221 -0.81986600161
          0.2535699904 0.3572730124 0.89892101288 0.24116399884 0.39790201187 0.88516300917
          0.27892899513 0.34800601006 0.89503699541 0.26313599944 0.38465899229 0.88475799561
          0.30288699269 0.33879598975 0.89077299833 0.28252100945 0.37608000636 0.8824660182
          -0.16857500374 -0.59844201803 -0.78323000669 0.25771299005 -0.021780999377 0.96597599983
          -0.17414900661 -0.58421301842 -0.79269599915 0.14114299417 -0.98171699047 -0.12771399319
          0.20003899932 -0.94560599327 -0.25654199719 0.14948399365 -0.96201002598 -0.22845500708
          0.19568300247 -0.9659460187 -0.16928200424 0.24145500362 -0.92685502768 -0.28746899962
          0.23851199448 -0.94789499044 -0.21120400727 0.2778750062 -0.90627199411 -0.31852400303
          0.27425301075 -0.92406201363 -0.26625999808 0.30159598589 -0.89361798763 -0.33239498734
          0.29863199592 -0.90487998724 -0.30333399773 0.31204101443 -0.89195400476 -0.32718199492
          0.30834001303 -0.89701199532 -0.31669598818 0.31906399131 0.33672198653 0.88589900732
          0.19248999655 0.50989198685 0.83842599392 0.19992800057 0.48114600778 0.85353797674
          0.97074097395 -0.23622199893 0.04313499853 0.97685497999 -0.20417100191 0.063787996769
          0.98699498177 -0.15736700594 0.032804001123 0.31511199474 -0.89794999361 -0.30722901225
          0.30898699164 -0.9003379941 -0.30646198988 0.31265699863 -0.90709197521 -0.28183299303
          0.30118501186 -0.9076269865 -0.29240500927 0.30436700583 -0.91613698006 -0.26086899638
          -0.54338902235 -0.6899420023 0.47823399305 0.81709301472 0.54214197397 -0.19606499374
          0.77086800337 0.39188399911 -0.50218397379 -0.49701499939 -0.83924502134 0.22055399418
          0.28804400563 -0.91473597288 -0.28335300088 0.27298000455 -0.92037397623 -0.27998998761
          0.29084700346 -0.92439800501 -0.24677300453 0.25278899074 -0.92541599274 -0.28231799603
          0.27339300513 -0.93161898851 -0.23946100473 0.25190800428 -0.93795001507 -0.238312006
          0.22893700004 -0.92934900522 -0.28965300322 0.22960500419 -0.94194799662 -0.24498100579
          0.90362101793 0.33924001455 -0.26150500774 0.88071501255 0.45105201006 -0.14454400539
          0.8893430233 0.39149001241 0.23622900248 0.20064200461 -0.93104398251 -0.3047940135
          0.16641199589 -0.92990899086 -0.32798698545 0.20046299696 -0.94490998983 -0.25876399875
          0.16765999794 -0.94584000111 -0.27798700333 0.13206300139 -0.92494398355 -0.35642299056
          0.13186599314 -0.94275897741 -0.30629500747 0.094860002398 -0.91624301672 -0.38923099637
          0.92586100101 0.27646300197 -0.25758400559 0.92566299438 0.28882598877 -0.24439199269
          0.051821999252 -0.9191660285 -0.39044600725 0.019006000832 -0.88443297148 -0.46628001332
          0.0079030003399 -0.89890497923 -0.43807199597 -0.021945999935 -0.85365599394 -0.52037501335
          -0.036405999213 -0.86755901575 -0.49600100517 -0.061586998403 -0.81806600094 -0.57181799412
          -0.11243700236 -0.77611202002 -0.62049001455 -0.10149499774 -0.76581901312 -0.63499599695
          -0.1290320009 -0.72297602892 -0.67871701717 0.93129998446 0.26195800304 -0.25309801102
          0.93753302097 0.23727500439 -0.25442400575 0.93670600653 0.23843699694 -0.25637900829
          -0.1424690038 -0.7164850235 -0.68290001154 -0.15374399722 -0.66519099474 -0.73067301512
          -0.16206899285 -0.65700602531 -0.73625898361 0.99532002211 0.0074680000544 -0.096341997385
          0.99286401272 0.045933999121 -0.11004699767 0.99364501238 -0.002063000109 -0.11254400015
          0.992380023 -0.061322998255 -0.10687100142 0.99209398031 -0.016156999394 -0.12444899976
          0.29767099023 0.36601400375 0.88171797991 0.22017900646 0.45797398686 0.86126697063
          0.33664399385 0.33506399393 0.88000100851 0.21085700393 0.48131901026 0.85080599785
          0.41375100613 0.38631400466 0.82436102629 0.41950398684 0.37020498514 0.82883399725
          0.40733900666 0.37191998959 0.83411699533 0.3141669929 0.3614679873 0.87786102295
          0.23758499324 0.43557199836 0.86823397875 0.42809799314 0.38423898816 0.81798100471
          0.35267499089 0.33431899548 0.87398600578 0.32452300191 0.40822300315 0.85325199366
          0.36490899324 0.39597499371 0.84264200926 0.31765401363 0.39702001214 0.86108702421
          0.22679999471 0.45363599062 0.86184501648 0.42192101479 0.40275800228 0.81226098537
          0.32277399302 0.35932898521 0.87561398745 0.3665690124 0.41042101383 0.83497399092
          0.25125199556 0.41923099756 0.87242102623 0.43514001369 0.40168100595 0.8057950139
          0.363756001 0.33587101102 0.86883401871 0.31879800558 0.42449399829 0.8474509716
          0.23616400361 0.43574398756 0.8685349822 0.4244889915 0.42014700174 0.80205100775
          0.33511298895 0.35830700397 0.87138700485 0.36956200004 0.4285889864 0.82446098328
          0.26129201055 0.4059869945 0.87572902441 0.44149699807 0.41998499632 0.7929019928
          0.38000899553 0.33816799521 0.86094999313 0.32400500774 0.4431540072 0.83584398031
          0.24455499649 0.41596400738 0.87588000298 0.42691299319 0.43990299106 0.79008299112
          0.34341800213 0.3607749939 0.86712497473 0.375308007 0.44847801328 0.81117898226
          0.27035799623 0.39613500237 0.8774870038 0.19432400167 0.51843601465 0.83274400234
          0.198033005 0.46535098553 0.86268901825 0.99278998375 -0.061287999153 -0.10301700234
          0.99224299192 -0.017922999337 -0.12301199883 0.44854098558 0.44164898992 0.77701801062
          0.38474801183 0.34512498975 0.85607099533 0.32560101151 0.46500399709 0.82325899601
          0.25184500217 0.4042249918 0.87930399179 0.25152599812 -0.13016499579 0.95905798674
          0.22938600183 0.4410380125 0.8676789999 0.22275100648 0.46031999588 0.85935300589
          0.20926700532 0.49142301083 0.84540599585 0.43658399582 0.46073698997 0.7727329731
          0.3452720046 0.36640000343 0.86402499676 0.37155199051 0.47135698795 0.79985702038
          0.27532100677 0.38929998875 0.87900197506 -0.18836100399 -0.59937500954 -0.77799099684
          -0.16406400502 -0.64588201046 -0.74559998512 -0.17619200051 -0.60661900043 -0.77522301674
          0.45287299156 0.46321800351 0.76179802418 0.39249399304 0.35325399041 0.84921199083
          0.3300639987 0.4880990088 0.80797100067 0.25453799963 0.39553698897 0.88247400522
          0.20803500712 0.54729300737 0.81067401171 0.19910700619 0.54462301731 0.81470400095
          0.20983499289 -0.88868701458 -0.40768098831 0.22840799391 -0.8943169713 -0.38474199176
          0.19262799621 -0.87093102932 -0.45207801461 0.96016097069 0.18721699715 -0.20746399462
          0.95521599054 0.22430300713 -0.19300399721 0.95003300905 0.22903700173 -0.21208499372
          0.16513599455 -0.85597699881 -0.48993301392 0.18489700556 -0.87967097759 -0.43816798925
          0.13156700134 -0.83542001247 -0.5336329937 0.36698400974 -0.80724698305 -0.4622490108
          0.3421779871 -0.82415097952 -0.45131900907 0.32454499602 -0.84354799986 -0.42789798975
          0.097159996629 -0.8145070076 -0.57195997238 0.15278300643 -0.86811602116 -0.47226300836
          0.11544399709 -0.85241699219 -0.50995898247 0.058789998293 -0.78989201784 -0.61042100191
          0.081396996975 -0.83427500725 -0.54530602694 0.016216000542 -0.76137202978 -0.64811199903
          0.042220000178 -0.81264102459 -0.5812330246 -0.012594999745 -0.74842399359 -0.66310101748
          -3.4000000596e-05 -0.78270602226 -0.62239199877 -0.052485000342 -0.71974599361 -0.69225102663
          0.24300900102 0.45134299994 0.85862499475 0.24919399619 0.44455099106 0.86039298773
          0.21099799871 0.47955000401 0.85176897049 0.24601399899 0.40783599019 0.87928700447
          -0.040286000818 -0.75360900164 -0.65608799458 -0.090199999511 -0.69107800722 -0.71713000536
          -0.078413002193 -0.72347801924 -0.68588000536 -0.1240440011 -0.66392099857 -0.73744297028
          -0.11253999919 -0.69204497337 -0.71302700043 -0.1541389972 -0.63662099838 -0.75561499596
          -0.14127700031 -0.66229397058 -0.73580402136 -0.17530199885 -0.61645197868 -0.76762998104
          -0.16201600432 -0.63427001238 -0.75594502687 0.43645501137 0.48590600491 0.75723302364
          0.35619500279 0.37347400188 0.85652899742 0.38234999776 0.49645701051 0.77931898832
          0.27791699767 0.38575801253 0.87974601984 0.21151399612 0.50584900379 0.83628898859
          0.93695998192 0.24236400425 -0.25172701478 0.93874901533 0.24881200492 -0.23841799796
          0.46165400743 0.48638400435 0.74182599783 0.40349799395 0.36097699404 0.84076499939
          0.33248901367 0.51548498869 0.78976297379 0.25505000353 0.39078700542 0.88444000483
          0.21914699674 0.50668299198 0.83381402493 -0.10250499845 -0.73914200068 -0.66570401192
          -0.12845100462 -0.70249199867 -0.70000302792 0.44438999891 0.50967001915 0.73671901226
          0.3570510149 0.38388600945 0.85155498981 0.38401898742 0.52657902241 0.75844800472
          0.28161600232 0.38509699702 0.87885898352 0.21877500415 0.4721069932 0.85396301746
          0.46828201413 0.51201999187 0.72010201216 0.3303360045 0.54892200232 0.76783001423
          0.25720098615 0.39040601254 0.88398599625 0.22503100336 0.46419399977 0.85667097569
          -0.067514002323 -0.7799090147 -0.6222410202 0.45025599003 0.53354799747 0.71595799923
          0.38850098848 0.5566740036 0.73429000378 0.28426501155 0.387616992 0.87689602375
          0.22277499735 0.44365298748 0.86806899309 0.47498899698 0.53793901205 0.69642400742
          0.33898600936 0.58120799065 0.73978799582 0.25670599937 0.39360699058 0.88270902634
          0.22595199943 0.43149998784 0.87335801125 -0.028628999367 -0.81526201963 -0.57838398218
          0.45708400011 0.5613719821 0.68988102674 0.3939819932 0.58756399155 0.70678597689
          0.28375598788 0.39412000775 0.87415802479 0.22374099493 0.4201579988 0.87943601608
          0.48166701198 0.56633400917 0.66877698898 0.34498101473 0.61604201794 0.70815300941
          0.25338700414 0.40191200376 0.87992197275 0.22466099262 0.40578898787 0.88592499495
          0.014313999563 -0.84354102612 -0.53687500954 0.46404200792 0.5912989974 0.65956801176
          0.39746299386 0.62037402391 0.67613500357 0.28384500742 0.40341201425 0.86988002062
          0.22199200094 0.40270000696 0.88800501823 0.056281000376 -0.90167099237 -0.42874500155
          0.48966899514 0.59345501661 0.63877600431 0.35468199849 0.65016400814 0.67192798853
          0.25446501374 0.41291600466 0.87449902296 0.21983699501 0.3867880106 0.89558202028
          0.053273998201 -0.86594200134 -0.49729800224 0.47154399753 0.62052500248 0.62657397985
          0.40956801176 0.65351700783 0.63652902842 0.28458499908 0.41655999422 0.86341702938
          0.21840600669 0.38960799575 0.89470899105 0.49839299917 0.62103402615 0.60491400957
          0.36018699408 0.69021999836 0.62758398056 0.25044700503 0.42949700356 0.86764502525
          0.21391999722 0.37487900257 0.90205597878 0.093106999993 -0.88380599022 -0.45849600434
          0.479862988 0.65047800541 0.58873599768 0.41524899006 0.68986600637 0.59300297499
          0.28017899394 0.43463000655 0.85591799021 0.21289299428 0.38230600953 0.89917701483
          0.50582802296 0.64776998758 0.56967699528 0.36732599139 0.72935599089 0.57715797424
          0.25010299683 0.45031899214 0.85712397099 0.20814800262 0.37126499414 0.90489602089
          0.25722798705 0.382039994 0.88762497902 0.95795500278 0.27658599615 -0.076310999691
          0.9640840292 0.26016399264 -0.053454998881 0.95701098442 0.28232398629 -0.066497996449
          0.49195000529 0.67907702923 0.54483002424 0.42291399837 0.72371602058 0.54532498121
          0.28513100743 0.45328998566 0.8445289731 0.20764599741 0.38015401363 0.90131402016
          0.2392359972 0.38073900342 0.89319902658 0.13438299298 -0.89843600988 -0.41803601384
          0.51548397541 0.67480099201 0.52812802792 0.37925800681 0.76243299246 0.52426999807
          0.25017800927 0.47577899694 0.84323501587 0.20284800231 0.37332698703 0.90525102615
          0.2519119978 0.35266500711 0.90120398998 0.16948099434 -0.90652602911 -0.38663598895
          0.49533501267 0.71065497398 0.49961298704 0.43420100212 0.75301599503 0.4944050014
          0.28563800454 0.47698900104 0.83119899035 0.20289699733 0.38536000252 0.9001839757
          0.23192800581 0.36114698648 0.90320700407 0.52391797304 0.7023820281 0.48184001446
          0.39128398895 0.79581600428 0.46214100718 0.25067600608 0.50176900625 0.82788300514
          0.19707900286 0.38100299239 0.90332502127 0.24382400513 0.33728098869 0.9092810154
          0.20079499483 -0.91089099646 -0.36049801111 0.5071579814 0.73439598083 0.45105800033
          0.43811801076 0.78450500965 0.43886700273 0.28580701351 0.50475102663 0.81458002329
          0.19838500023 0.39434701204 0.89729297161 0.22434699535 0.34981098771 0.90956097841
          0.97649002075 0.19769899547 0.085927002132 0.93352597952 0.34889900684 0.082455001771
          0.945990026 0.31454199553 0.078525997698 0.53232002258 0.72677600384 0.43408799171
          0.39901700616 0.82438397408 0.40146800876 0.25310701132 0.53566098213 0.80560797453
          0.19227600098 0.39740300179 0.89727401733 0.23691600561 0.33165198565 0.91316902637
          0.36800199747 -0.79711002111 -0.47873899341 0.95119601488 0.24792300165 -0.18373900652
          0.94553202391 0.25300499797 -0.20483900607 0.51865702868 0.75750899315 0.39645299315
          0.44863700867 0.81090897322 0.37570101023 0.28709501028 0.53518801928 0.79444998503
          0.19451199472 0.41022500396 0.89099997282 0.21696299314 0.34543699026 0.91301697493
          0.54754602909 0.3424000144 0.76351499557 0.50442498922 0.35252100229 0.78821599483
          0.65626001358 0.41781398654 0.62829500437 0.94848698378 0.20746800303 -0.23943400383
          0.94318401814 0.24280799925 -0.22682200372 0.9485039711 0.23919199407 -0.20767199993
          0.93493098021 -0.23257300258 -0.26798298955 0.93790102005 -0.24472600222 -0.24586799741
          0.94099998474 -0.22650800645 -0.25142401457 0.61723101139 0.73724400997 0.2747670114
          0.64870899916 0.71077102423 0.27199500799 0.58799898624 0.76445901394 0.26431000233
          0.23000399768 -0.9123250246 -0.33876299858 0.54041302204 0.74713802338 0.38696101308
          0.41046801209 0.84722900391 0.33722299337 0.2563560009 0.5758510232 0.77632302046
          0.1902769953 0.42047798634 0.88712602854 0.23177999258 0.33692800999 0.91255497932
          0.65259999037 0.73910802603 0.16683399677 0.61785799265 0.76247501373 0.19204899669
          0.6745070219 0.72385597229 0.14516299963 0.93223398924 0.34809198976 -0.098852999508
          0.93107098341 0.35070800781 -0.10054899752 0.94272202253 0.26633301377 -0.20085300505
          0.94348198175 0.26478400826 -0.19932599366 0.93666601181 0.27055901289 -0.22238500416
          0.93914300203 0.26032400131 -0.22414900362 0.73912400007 0.40403300524 0.53893697262
          0.25232300162 -0.91195201874 -0.32353800535 -0.076922997832 -0.99689799547 0.016623999923
          -0.080937996507 -0.9918320179 0.098582997918 -0.047988999635 -0.99649900198 0.068458996713
          0.52525001764 0.78038597107 0.33928000927 0.45805901289 0.83099299669 0.31564500928
          0.29476499557 0.5681989789 0.76828598976 0.19253499806 0.43309998512 0.88054198027
          0.21325300634 0.35159298778 0.91153997183 0.10733599961 -0.93592602015 -0.33544099331
          0.063486002386 -0.95311397314 -0.29587799311 0.16118100286 -0.93192702532 -0.32485699654
          0.93627601862 0.26966500282 -0.2250970006 0.99192398787 0.10235399753 0.074904002249
          0.99162298441 0.12680900097 0.024552000687 0.75799697638 -0.63848501444 -0.1333310008
          0.99923700094 0.0012049999787 0.039046000689 -0.065911002457 -0.98243999481 0.17454999685
          0.54882502556 0.76646000147 0.33366298676 0.41468599439 0.86907798052 0.2697019875
          0.26199498773 0.61604297161 0.74286597967 0.1902859956 0.45128399134 0.87185698748
          0.23135100305 0.35121101141 0.90726399422 0.96604299545 0.079469002783 -0.24585600197
          0.96829098463 0.078965000808 -0.2370160073 0.9640610218 0.13971200585 -0.22598099709
          0.96436399221 0.18449600041 -0.18963800371 0.99792599678 0.063266001642 -0.011873000301
          0.99714398384 0.074951998889 0.0093310000375 0.99344199896 0.11333400011 -0.015088000335
          0.18789100647 -0.91336399317 -0.36119699478 0.88327002525 -0.15463100374 -0.44263198972
          0.86321401596 -0.1951559931 -0.46559199691 0.87684100866 -0.18203300238 -0.44498699903
          0.27129799128 -0.90987199545 -0.31389400363 -0.092532999814 -0.97466701269 0.20362199843
          0.53014600277 0.79876798391 0.28445699811 0.46291399002 0.84902697802 0.25468599796
          0.29695999622 0.60500901937 0.73876798153 0.26897999644 0.66020202637 0.70127302408
          0.19285899401 0.46275401115 0.86525398493 0.20647700131 0.36820799112 0.90652602911
          0.93387800455 0.35624301434 -0.031029999256 0.93574398756 0.35202398896 -0.021484000608
          0.95516997576 0.29565098882 0.015507999808 0.96735501289 0.13904100657 -0.21187600493
          0.99427801371 0.10120899975 -0.034166999161 0.99765002728 0.051270999014 -0.045457001776
          0.58969300985 0.64380002022 -0.48763099313 0.57004797459 0.7294279933 -0.37812700868
          0.87098002434 -0.20624299347 -0.44593599439 0.8684039712 -0.22466799617 -0.44203901291
          0.85511797667 -0.23239000142 -0.46342998743 0.94912701845 0.2595590055 -0.17828899622
          -0.41551399231 -0.43966799974 -0.79626601934 -0.092246003449 -0.99465698004 0.046355001628
          -0.38164499402 -0.45980200171 -0.80182898045 -0.11523599923 -0.93682700396 0.33026599884
          -0.097245000303 -0.94663000107 0.30730199814 0.55453199148 0.78377401829 0.27963000536
          0.42720198631 0.88172698021 0.20014099777 0.30602398515 0.64286500216 0.7021920085
          0.27742600441 0.7049869895 0.65270900726 0.19192799926 0.48709899187 0.85199701786
          0.23276300728 0.3779039979 0.89610797167 -0.59297597408 0.66462802887 0.45458701253
          -0.58379298449 0.71881902218 0.37747201324 -0.54214602709 0.72924101353 0.4174759984
          -0.5689920187 0.43324398994 0.69896197319 -0.62898999453 0.3872680068 0.67408800125
          -0.58574301004 0.41348800063 0.69708800316 0.94154900312 0.33302098513 -0.050811000168
          0.92408400774 0.37258899212 -0.085124000907 0.91504400969 0.39851200581 -0.062313999981
          0.07337500155 -0.71400702 -0.69628399611 0.14536100626 -0.96654701233 -0.21132299304
          0.0011360000353 -0.76020002365 -0.64968800545 0.99422800541 0.082439996302 -0.068659998477
          0.99479997158 0.046700999141 -0.090504996479 0.35782301426 0.86369198561 0.35496398807
          0.3327459991 0.81641298532 0.47196298838 0.39195600152 0.83701598644 0.38180500269
          0.94230097532 0.32430899143 -0.083025000989 0.79831600189 0.59775602818 0.07335100323
          0.97394001484 0.2027579993 -0.1016350016 0.96087098122 0.21618999541 -0.17317099869
          0.73400300741 0.67311501503 0.090305000544 0.75226700306 0.65122497082 0.10000299662
          0.70217198133 0.69901502132 0.13540199399 0.93409997225 0.26185199618 -0.24267500639
          0.91747099161 0.25722900033 -0.30344799161 0.46841999888 -0.56370699406 -0.68030697107
          0.46273100376 -0.57454901934 -0.67510998249 0.95741897821 0.2807019949 0.067493997514
          0.92303001881 0.29575800896 0.24605700374 -0.97981697321 -0.19416500628 -0.047525998205
          0.94199901819 -0.086511000991 -0.32427498698 0.9211999774 -0.1043419987 -0.3748370111
          0.91949397326 -0.1403439939 -0.3671990037 0.99881398678 -0.022314999253 -0.043281998485
          0.90495800972 0.36554801464 -0.2177760005 0.91117697954 0.34368300438 -0.22724199295
          -0.38141900301 -0.41628101468 -0.8253660202 0.54236602783 0.80710697174 0.23327299953
          0.47467699647 0.86016601324 0.18653599918 0.28763398528 0.74920701981 0.59662002325
          0.31683599949 0.68345701694 0.65764802694 0.19456699491 0.49695798755 0.84568101168
          0.20709399879 0.39081200957 0.89687097073 -0.52939200401 0.44458401203 0.72255802155
          -0.51176297665 0.46732500196 0.72090601921 -0.48334699869 0.49936899543 0.71903198957
          0.94021201134 0.26058998704 -0.21930399537 0.9604139924 0.27856901288 0.0018469999777
          0.91416299343 0.4018509984 -0.053125999868 0.94518500566 0.2013220042 -0.25708898902
          0.94592702389 0.20192399621 -0.25386801362 0.9541670084 0.14887799323 -0.25961500406
          0.96323800087 0.0038540000096 -0.26862299442 0.96447098255 0.074800997972 -0.25337898731
          0.21814200282 -0.95148897171 -0.21698699892 0.99236297607 -0.0035840000492 -0.12329600006
          0.99737298489 0.018959000707 -0.069916002452 0.95198297501 0.19217500091 -0.23831999302
          0.95882797241 0.13509699702 -0.24979299307 0.96116000414 0.13935099542 -0.23822699487
          0.45498099923 0.31404399872 0.83328801394 0.39650198817 0.29470598698 0.86944502592
          0.39171299338 0.30886399746 0.86669701338 0.96324902773 0.16221599281 -0.21409599483
          0.96223002672 0.10694900155 -0.25035101175 0.95940500498 0.15865300596 -0.23317599297
          0.37625899911 -0.41656899452 -0.82758700848 0.28316900134 0.4232929945 -0.86060297489
          0.32451200485 0.38356399536 -0.86462199688 0.47553101182 0.43304499984 -0.76573002338
          -0.25590199232 -0.91098499298 0.32344999909 -0.19280399382 -0.92464798689 0.32840999961
          0.8496620059 0.5232719779 0.065274998546 0.67474400997 0.72022801638 0.16122299433
          0.69776201248 0.7060970068 0.12064500153 0.77576202154 0.62766700983 0.065009996295
          0.77420598269 0.63115400076 0.047428999096 0.78663098812 0.61695897579 0.02392699942
          0.76823997498 0.63745200634 0.058839000762 0.92982000113 0.21692399681 -0.29728600383
          0.92577302456 0.1103489995 -0.36161699891 0.94753998518 0.17374800146 -0.26829099655
          0.99869298935 -0.028870999813 0.04217299819 0.99140000343 0.1272470057 0.030572999269
          0.99622499943 0.018990999088 0.084705002606 0.99658298492 0.082034997642 -0.009600000456
          0.9750019908 0.22157600522 -0.016569999978 0.96830797195 -0.24710600078 -0.036320000887
          0.97842299938 -0.20397800207 -0.032878998667 0.9726549983 -0.20288200676 -0.1130559966
          0.97855001688 0.11797799915 0.16888299584 0.98701399565 0.13875199854 0.080945000052
          0.97766399384 0.12013299763 0.17245699465 0.94986498356 0.10228099674 -0.2954570055
          0.92435002327 0.050126999617 -0.3782390058 0.94925397635 0.043939001858 -0.31142699718
          0.28481400013 -0.90716797113 -0.30972000957 -0.42063900828 -0.39950999618 -0.81452697515
          0.067576996982 -0.92135900259 -0.38279300928 0.1242569983 -0.90211999416 -0.41320699453
          0.078736998141 -0.85521697998 -0.51225399971 0.12262800336 -0.84185397625 -0.52558898926
          -0.15223099291 -0.86452901363 0.47897300124 -0.1452369988 -0.87346100807 0.46472799778
          0.37354698777 0.62304598093 -0.68722397089 0.40254598856 0.62726801634 -0.66670197248
          0.38769099116 0.68105101585 -0.6211810112 0.56091201305 0.79595601559 0.22766700387
          0.2990359962 0.79211801291 0.532096982 0.32387199998 0.72419601679 0.60880798101
          0.19787099957 0.53516000509 0.82124900818 0.23449599743 0.41378599405 0.87965500355
          -0.17744700611 0.93527197838 0.30623200536 -0.16923299432 0.93949401379 0.29784500599
          -0.16316899657 0.92765200138 0.33591398597 -0.17161999643 0.92310202122 0.3441349864
          -0.15771000087 0.91413301229 0.37348198891 -0.16561800241 0.90956801176 0.3811250031
          -0.15208500624 0.89983600378 0.40885800123 -0.16286300123 0.89542400837 0.41435599327
          0.29422599077 0.84553802013 -0.44552901387 0.2695890069 0.84446698427 -0.46281498671
          0.30937099457 0.83480399847 -0.45540300012 -0.16666600108 -0.60510700941 -0.77850401402
          0.97812497616 0.18971599638 -0.085321001709 0.96959298849 0.21476499736 -0.11732400209
          0.96158802509 0.24765500426 -0.11838699877 -0.076604999602 -0.82665097713 -0.55747699738
          0.98922199011 0.090722002089 -0.11493100226 0.44447299838 -0.39814400673 0.80244898796
          0.51936501265 -0.48052200675 0.70665299892 0.93082797527 -0.18629099429 -0.31441101432
          0.93046301603 -0.17114500701 -0.32395601273 0.95241099596 -0.086947999895 -0.29215100408
          0.49052000046 0.3096050024 0.81457602978 0.95451301336 0.23419100046 -0.1845510006
          0.95394301414 0.20518100262 -0.2188449949 0.84735101461 0.3725399971 0.37843200564
          0.99358201027 0.10653600097 -0.038013000041 0.99758499861 0.069004997611 -0.0079229995608
          0.99611097574 0.068925999105 -0.054880999029 0.97974598408 0.10531099886 -0.17031499743
          0.98551297188 0.12539799511 -0.11418599635 0.9853219986 0.093004003167 -0.14314299822
          0.98943799734 0.079815000296 -0.12100099772 0.90674000978 0.41534900665 -0.072849996388
          0.87695401907 0.4753279984 -0.070821002126 0.9968649745 -0.041751999408 -0.067212998867
          0.70166599751 0.68550699949 0.1942819953 0.77589100599 0.61246800423 0.15124900639
          0.80279302597 0.57744497061 0.14859500527 0.95099902153 0.28527399898 -0.11924400181
          0.95179802179 0.28295400739 -0.11839699745 0.92683798075 0.36585399508 -0.084388002753
          0.84891098738 0.5135999918 0.12475600094 0.89721500874 0.43782699108 0.05755700171
          0.86609101295 0.48192700744 0.132791996 0.97441697121 -0.049419999123 -0.21924600005
          0.9718080163 -0.059353999794 -0.22818100452 0.95544797182 -0.085918001831 -0.2823779881
          0.95564800501 0.16147899628 -0.24629700184 0.95110499859 0.21641600132 -0.22037099302
          0.97518700361 0.14114899933 -0.17055000365 0.91161298752 -0.12153799832 -0.39267000556
          0.96173000336 -0.19364200532 -0.19384999573 0.95134198666 -0.18328300118 -0.24770100415
          0.96186900139 -0.15912200511 -0.22246000171 0.96400797367 0.01013199985 0.26567900181
          0.64057797194 -0.10161499679 0.7611399889 0.62337398529 -0.11038099974 0.77409398556
          0.95177102089 -0.30378100276 0.043009001762 0.96378797293 -0.26207101345 0.049304001033
          0.95155900717 -0.29546499252 0.085060998797 0.96269899607 0.26600301266 -0.049534998834
          0.96451097727 0.25970700383 -0.047644998878 0.95534902811 0.29045200348 -0.054281000048
          0.86964702606 -0.19187299907 -0.45486199856 0.86107599735 -0.2152480036 -0.46066901088
          0.85721802711 -0.2216629982 -0.46480500698 0.86065500975 -0.20878499746 -0.46441599727
          0.95862698555 0.26441299915 -0.10545399785 0.96244001389 0.2309409976 -0.14273999631
          0.9625980258 0.2271219939 -0.14771899581 0.9458630085 0.20343700051 -0.25289601088
          0.99194401503 0.11506199837 0.052999000996 0.99922597408 0.023858999833 0.031282998621
          0.99225902557 0.09921900183 0.074680998921 0.91069501638 0.38751500845 -0.14305900037
          0.91171300411 0.38178798556 -0.1517149955 0.89733397961 0.42635700107 -0.11406499892
          0.98151999712 -0.013772999868 -0.19086399674 0.97828102112 0.059987001121 -0.19841399789
          0.98577302694 0.059259999543 -0.15728799999 -0.11107099801 -0.9033010006 0.41438099742
          -0.074523001909 -0.90761697292 0.41313201189 -0.020306000486 -0.96007597446 0.27900201082
          0.29434901476 -0.90432602167 -0.30911800265 -0.37997600436 -0.3907110095 -0.83842897415
          0.0077470000833 -0.93939197063 -0.34275698662 0.024638000876 -0.8707780242 -0.49105799198
          0.36256399751 0.9288020134 -0.076649002731 0.27346301079 0.95494902134 0.11528299749
          0.3052200079 0.93840098381 0.1619990021 0.42890501022 0.8956130147 0.11797700077
          0.47986000776 0.87148499489 0.10123100132 0.53759598732 0.82647299767 0.16713100672
          0.33576801419 0.76287400723 0.5525239706 0.30983400345 0.82765197754 0.46797001362
          0.19959700108 0.53683000803 0.81974101067 0.21043600142 0.42371401191 0.88101297617
          0.31128099561 -0.83520501852 -0.45336198807 0.32421201468 -0.83394998312 -0.44655901194
          0.32297199965 -0.8327370286 -0.4497089982 -0.45642000437 0.48178300261 0.74804097414